ITEM: TIMESTEP
2000
ITEM: NUMBER OF ATOMS
512
ITEM: BOX BOUNDS pp pp pp
0.0000000000000000e+00 1.0000000000000000e+01
0.0000000000000000e+00 1.0000000000000000e+01
0.0000000000000000e+00 1.0000000000000000e+01
ITEM: ATOMS x y z ix iy iz 
0.747682 0.0723411 1.11397 0 0 0 
1.6753 0.591622 0.0285464 0 0 0 
2.64284 1.0504 0.480754 0 1 0 
3.04337 0.00502039 0.819452 0 0 1 
4.30564 0.334628 0.744429 0 0 0 
4.98784 1.24362 1.12 0 0 0 
6.63079 0.882121 0.125524 0 0 1 
7.66023 0.448226 0.399119 0 0 0 
8.52544 0.141633 1.08466 0 0 1 
9.85592 0.805349 0.907547 -1 0 0 
9.13818 0.692367 0.143067 -1 0 0 
0.624638 1.4871 1.26789 0 1 0 
1.60452 2.41226 0.620482 1 0 1 
2.53195 1.99459 1.10064 0 0 1 
3.78242 1.73787 1.06466 0 0 0 
5.47321 1.84256 0.523591 -1 0 1 
4.79633 2.64772 0.079823 0 0 0 
7.33817 2.71024 1.03072 0 0 0 
9.39563 2.74455 1.30567 0 0 0 
9.22572 1.83056 0.283749 -1 0 0 
0.189338 3.05244 0.807988 0 0 0 
1.0294 3.43184 1.40356 0 0 1 
1.99075 3.36581 1.09466 0 0 0 
3.94209 3.09781 0.348216 0 0 0 
3.15728 4.06836 0.662242 0 0 0 
5.21176 3.80675 0.160645 0 0 1 
4.30905 4.09597 0.581638 0 0 0 
6.29987 2.86337 0.75601 0 0 0 
7.16247 3.67065 0.765535 0 0 0 
9.22312 3.61406 0.641673 -1 0 0 
0.160195 5.07552 0.0658894 0 0 0 
1.22966 5.71314 0.87721 0 0 0 
1.22319 4.7596 0.179487 0 0 1 
3.7536 4.91355 0.211405 0 0 0 
2.91107 5.00966 1.31416 0 0 0 
5.59374 4.31179 1.08579 0 0 0 
4.42694 5.23984 1.15296 0 0 0 
6.48871 5.71142 0.994688 0 0 1 
6.79963 4.76088 1.22903 0 0 0 
7.75152 4.48414 0.857187 0 0 0 
7.15453 4.94488 0.168196 0 0 1 
8.30902 5.70603 0.699368 0 0 0 
9.63938 4.66803 1.1606 0 0 1 
8.62429 4.67764 0.301135 0 0 0 
4.11813 5.86208 0.367611 0 0 0 
5.16246 6.44859 0.0685619 0 0 0 
4.42973 6.29752 1.36168 0 0 0 
5.4434 6.54217 1.17568 0 0 0 
6.36489 6.53974 0.331067 0 0 1 
9.69076 6.02169 0.745781 -1 0 0 
1.2594 7.15511 0.890651 1 0 1 
0.00736226 7.50882 1.0513 0 0 1 
3.15886 7.57775 0.883809 -1 0 0 
5.56676 7.65313 0.193623 0 0 0 
4.82027 8.39332 0.103627 0 0 1 
5.82768 7.41375 1.2443 0 -1 0 
6.94075 8.01178 1.40059 0 0 1 
7.21509 8.4089 0.364916 0 -1 0 
7.81813 7.38013 0.640424 0 0 1 
8.72813 7.8886 0.892378 0 0 0 
2.97804 9.35754 0.000473021 0 0 0 
3.98971 9.26283 0.202101 0 0 1 
4.53937 9.12725 1.19239 0 0 0 
4.91497 9.65179 0.270356 0 -1 1 
6.27641 9.77806 0.396218 0 -1 0 
6.00777 8.63801 0.553933 0 0 1 
8.20881 8.99903 1.15219 0 -1 1 
8.51935 9.73244 0.197342 0 -1 0 
9.46752 8.74558 0.612525 0 -1 1 
9.5643 9.85479 0.684171 0 -1 0 
1.02205 0.569677 2.02189 0 0 0 
0.0866038 0.425276 2.70814 0 0 0 
2.41469 0.51383 2.42258 0 0 0 
3.84241 0.478407 1.96451 0 0 1 
3.14552 1.14672 2.16213 0 0 0 
4.92824 1.31859 2.52903 0 0 0 
5.27133 0.29013 1.61295 0 0 0 
4.61325 0.36751 2.82354 0 0 0 
6.29192 0.964762 1.57662 0 1 0 
6.56 1.32082 2.72769 0 0 0 
7.64643 0.351796 1.57154 0 1 1 
9.61624 0.238516 1.83367 0 0 0 
8.71971 1.16322 1.87881 0 0 0 
1.34827 2.64302 2.07475 0 0 0 
0.24974 2.64509 1.86677 1 0 0 
0.910122 1.68903 2.54893 1 0 0 
1.82155 1.69718 1.83422 0 0 0 
2.65507 2.31035 2.18682 0 0 0 
3.70423 2.80121 1.67187 0 0 0 
3.88429 1.8988 2.31046 0 0 0 
4.82112 2.57275 1.81473 0 0 0 
5.90906 1.94413 1.55677 0 0 0 
7.61586 2.61161 2.16353 0 0 0 
7.38535 1.49294 1.46463 0 1 0 
9.67745 1.68526 1.92193 0 0 0 
8.60019 2.09589 1.44869 0 0 0 
8.98633 2.6516 2.34351 -1 0 0 
0.726864 3.91047 2.32048 0 0 0 
1.79887 4.08171 1.87368 1 0 0 
1.62918 3.64933 2.83547 1 0 0 
3.78227 4.18896 1.67921 0 0 0 
3.48672 3.06195 2.76672 0 0 0 
5.43671 3.32459 1.75909 0 0 0 
4.46904 3.42499 2.53069 0 0 0 
6.0028 3.32771 2.74277 0 0 0 
6.4607 3.61322 1.90079 0 0 0 
8.32315 3.11011 1.45699 0 0 0 
7.64534 3.76364 1.88026 0 0 0 
9.85563 3.70341 1.60253 0 1 0 
8.82632 4.19254 1.51334 0 0 0 
9.89812 3.43715 2.69178 0 0 0 
0.642023 4.96614 1.67061 1 0 0 
3.8754 5.66034 1.91863 0 0 0 
2.86311 5.34944 2.23264 0 0 0 
5.5634 5.29381 1.47853 0 0 0 
4.82811 4.63629 2.12637 0 0 0 
6.50294 5.4952 2.05829 0 0 0 
7.88285 4.88549 1.71025 -1 0 0 
8.48755 4.32929 2.63678 -1 0 0 
9.75279 4.46755 2.37044 0 0 0 
9.92303 5.67504 2.1301 0 0 0 
0.935697 5.81313 2.51443 0 0 0 
1.74351 6.48692 1.54272 0 0 0 
3.19064 6.24812 2.60134 0 0 0 
3.30999 6.8058 1.52663 0 0 0 
5.03444 5.80714 2.27711 0 0 0 
4.62296 6.70076 2.61499 0 0 0 
5.90536 6.48294 2.48922 0 0 0 
6.62227 6.56653 1.60138 0 0 0 
7.21152 6.72853 2.54286 0 0 0 
7.86955 7.06522 1.6071 0 0 1 
8.32131 6.11635 2.0941 0 0 0 
9.25672 6.94261 2.08132 -1 0 1 
1.76951 7.66863 1.59006 0 0 0 
2.76917 7.37662 2.46652 0 0 0 
2.71733 8.26763 1.43135 1 0 0 
2.80098 8.48253 2.58049 0 -1 0 
3.6676 8.36813 1.97534 0 0 0 
4.92418 7.75258 1.94274 0 0 0 
5.81797 8.48122 2.31678 0 0 0 
7.31887 8.27413 2.4898 0 0 0 
9.58898 8.23767 1.91889 0 0 0 
0.562751 8.73198 1.50169 0 0 0 
2.26391 9.41649 1.45066 1 -1 0 
2.10928 9.24086 2.49147 1 -1 0 
3.56728 9.42935 1.73131 0 -1 0 
4.53884 9.39158 2.64617 0 0 0 
9.00998 9.35799 1.64358 0 0 0 
8.86068 8.72397 2.64511 0 0 0 
9.86423 9.21415 2.64629 0 0 0 
8.80548 9.98104 2.54428 0 -1 0 
1.8473 1.21098 3.28224 0 0 0 
2.52227 0.423024 3.8538 0 0 0 
4.09702 1.30654 3.24806 0 0 0 
4.02836 0.78803 4.10166 0 1 0 
7.82079 0.401745 2.88097 0 0 0 
8.24147 0.886707 3.79301 0 0 0 
0.736036 2.67607 2.89581 0 0 0 
0.243219 2.61864 4.08957 0 0 0 
0.960527 1.74423 3.63019 0 0 0 
1.94384 2.59275 3.07537 0 0 1 
2.82875 1.57558 3.55887 0 0 0 
2.33777 2.3327 4.08625 0 0 0 
4.34729 2.64427 4.05621 0 0 0 
4.4257 2.38142 3.03143 -1 0 0 
5.68806 2.1244 3.0624 0 0 0 
4.98223 1.74198 3.65713 0 0 0 
6.67393 2.6874 3.16723 0 0 0 
6.599 1.69791 4.0058 0 0 0 
7.50904 2.12706 3.83004 0 0 0 
8.36645 2.74966 4.1855 -1 0 0 
9.98487 2.04749 2.9219 -1 0 0 
8.87746 2.2248 3.24755 -1 0 0 
2.64991 3.35825 3.80096 0 0 0 
4.45794 4.05439 3.6834 0 0 0 
5.18645 3.14474 3.66087 -1 0 0 
7.04746 4.15492 2.8634 -1 0 0 
6.05869 3.15668 4.15859 0 0 0 
8.26862 3.14057 2.99589 0 0 0 
2.57539 5.43789 3.47412 0 0 0 
3.3497 4.39532 2.92583 0 0 0 
4.91379 5.12981 3.61689 0 0 0 
5.88666 4.97816 3.26731 0 0 0 
6.75645 5.5811 4.23092 0 0 -1 
7.84688 4.77086 3.33714 0 0 0 
9.05096 5.246 4.2236 -1 0 0 
0.0804562 5.90344 3.14283 0 0 0 
0.56629 6.15631 4.18999 0 0 0 
1.3392 6.28899 3.34733 0 0 0 
1.62778 7.0149 4.15063 0 0 0 
2.66654 6.82264 3.28202 0 0 0 
3.40425 7.12091 4.18638 0 0 0 
3.54187 6.13348 3.69405 0 0 0 
5.53261 6.10538 4.14646 0 0 0 
6.5733 6.8495 3.84928 0 -1 0 
6.91459 5.88618 3.18482 0 0 0 
8.09425 6.07851 3.45565 0 0 1 
8.99798 6.26254 2.88803 0 0 0 
0.807268 7.39893 3.29768 0 0 0 
0.108607 7.38605 4.18541 1 -1 0 
2.31074 7.92921 3.23762 0 0 0 
4.06038 7.23856 3.21832 0 0 0 
3.40365 8.4593 3.43867 0 -1 0 
5.15034 7.56199 3.02572 0 -1 0 
4.63061 7.82314 4.17454 0 0 0 
6.51125 7.99533 3.75554 0 0 0 
8.27304 7.19046 2.95905 0 0 0 
7.49532 7.83694 3.85244 -1 0 0 
8.64534 7.86977 3.81536 -1 0 0 
9.78611 7.14821 3.15927 -1 0 0 
1.42313 8.71436 3.00103 0 0 0 
0.452999 9.71486 3.67687 1 -1 0 
2.29751 8.86337 3.80075 0 0 0 
1.58767 9.5461 3.76034 0 0 0 
4.0561 8.86199 4.19117 0 0 1 
5.21168 8.9258 3.57506 0 0 0 
7.03664 9.5398 3.51027 -1 0 0 
5.94431 9.6515 3.7884 0 0 0 
9.58566 8.66364 4.22996 0 -1 0 
9.50017 9.77334 3.81083 0 -1 0 
1.08159 0.68811 4.41516 0 0 0 
2.05024 0.412306 5.01814 0 1 0 
3.00644 1.26778 5.56939 0 0 0 
4.82397 1.04931 5.26752 0 0 0 
5.53014 0.151171 5.56766 0 0 0 
4.4164 0.0770512 5.47024 0 0 0 
6.76373 0.562504 4.42118 0 1 0 
6.42622 1.07461 5.21725 0 1 0 
7.05214 0.112748 5.5504 0 1 0 
5.80258 0.966702 4.52345 0 0 0 
9.87042 0.720427 4.38721 0 0 0 
9.12979 0.404146 5.58 -1 1 0 
9.54538 1.37754 5.59889 0 0 0 
1.2695 1.81801 4.68855 0 0 0 
0.186962 2.80373 5.45983 0 0 0 
0.0980599 1.77884 4.74476 0 0 0 
1.04422 2.11799 5.70696 0 0 0 
2.34396 2.17057 5.46988 0 0 0 
5.65693 2.26661 4.59739 0 0 0 
4.43841 2.58494 5.2513 0 0 0 
6.4508 2.15855 5.35574 0 0 0 
7.45699 1.54934 4.84351 0 0 0 
7.22346 2.697 4.97235 0 0 0 
8.85839 1.80752 4.7298 -1 0 0 
0.829296 4.01656 5.07536 0 0 0 
1.49714 2.96599 4.95559 0 0 0 
2.57758 3.09262 4.82523 0 0 0 
1.81141 4.10169 4.48473 0 0 0 
4.38138 4.02076 5.49027 0 0 0 
5.12396 3.69835 4.65407 0 0 0 
6.13473 3.48166 5.21371 0 0 0 
8.13428 3.86303 4.5689 0 0 0 
8.52158 3.21953 5.39476 0 0 0 
9.49768 3.4458 4.55544 0 0 0 
0.419203 5.15115 4.82118 0 0 0 
1.9188 5.36552 4.4261 0 0 0 
1.71892 4.87979 5.43536 0 0 0 
3.97279 5.13351 4.53748 0 0 -1 
7.59727 5.65359 5.61212 -1 0 0 
1.31031 6.1839 4.98378 0 0 0 
2.49053 6.32032 4.30374 0 0 0 
2.38488 6.09051 5.28502 0 0 0 
2.61265 7.11361 5.1082 0 0 0 
3.40133 6.19092 4.91792 0 0 0 
3.8638 6.98393 5.2363 0 -1 0 
4.80326 7.10706 5.51882 0 -1 0 
7.10002 6.93864 5.138 0 0 0 
8.45886 6.28121 4.85557 -1 0 0 
9.80145 7.08281 5.33527 0 0 0 
1.19741 7.56598 5.11057 1 0 0 
0.818885 8.47527 5.55363 1 -1 0 
1.69629 8.38376 4.59356 0 0 0 
2.88714 8.07284 4.33744 0 0 0 
4.15927 7.99239 5.66285 0 0 0 
3.10429 8.25788 5.56495 0 0 0 
5.48199 8.23588 5.67134 0 0 0 
5.78677 8.39417 4.31725 0 0 0 
7.01051 8.05332 5.11754 -1 0 0 
8.42418 8.35054 4.80736 0 0 0 
0.423624 9.55335 5.40074 0 -1 0 
1.48548 9.39676 5.27178 0 0 0 
2.83357 9.64547 4.58567 0 -1 0 
4.22941 9.10364 5.23504 0 0 0 
3.37484 9.81089 5.51987 0 -1 0 
5.3218 9.18159 5.00496 0 0 0 
6.27618 8.96588 5.66995 0 -1 0 
6.89642 9.11505 4.67721 0 0 0 
7.49163 9.00892 5.48286 0 0 0 
9.44252 9.23413 5.19633 -1 0 0 
0.437568 0.768074 6.17376 0 1 0 
1.42843 0.751397 6.52205 0 1 0 
3.69638 0.25634 6.48136 0 0 0 
4.92859 0.235924 6.46783 0 0 0 
5.483 1.03553 6.10443 0 0 0 
6.3726 0.76811 6.3965 0 0 0 
7.07588 1.41241 5.96796 -1 0 0 
7.17178 0.13834 6.8431 0 1 0 
8.57099 1.19235 7.13181 -1 0 0 
0.679545 1.49355 6.87984 0 0 0 
0.515707 2.79051 6.89803 0 0 0 
2.51062 2.67806 7.04944 0 0 -1 
1.85764 1.8614 6.52924 0 0 -1 
3.87093 1.5171 6.10114 0 1 0 
3.42445 2.5741 5.98697 0 0 0 
3.04887 1.69085 6.83246 0 0 0 
4.85433 1.89867 6.25019 0 0 0 
6.52802 2.09037 6.67681 0 0 0 
7.71113 2.26732 5.82417 -1 0 0 
9.75686 1.81556 6.47425 0 0 0 
1.63912 3.23889 6.77097 0 0 0 
2.0816 3.24688 5.71572 0 0 0 
6.45373 3.60485 6.21596 0 0 0 
7.34364 4.16844 6.46416 0 0 0 
7.78881 2.91203 6.99405 -1 0 0 
9.29519 3.13062 6.54555 0 0 0 
9.78773 3.99685 5.78279 -1 0 -1 
0.958479 5.42023 5.90985 0 0 0 
0.965277 4.55956 6.61465 0 0 0 
0.605639 5.69002 7.10446 0 0 -1 
1.93878 4.57594 6.72351 0 0 0 
2.75536 5.45382 6.81683 0 0 0 
3.72747 4.6845 6.68707 0 0 0 
5.68297 4.35078 6.19706 0 0 0 
8.52793 4.392 6.37991 0 0 0 
0.621804 6.46826 5.73262 0 0 0 
0.153455 6.74513 6.97424 0 0 0 
1.97365 5.92546 6.25411 0 0 0 
1.86214 6.93673 5.79778 0 -1 0 
4.12829 7.11483 6.3816 0 0 0 
3.81135 5.72406 5.79827 0 0 0 
3.54185 6.30032 6.85647 0 0 0 
4.74109 5.8496 6.39228 0 0 0 
6.51913 7.1378 7.05383 0 0 0 
6.62618 6.11578 5.73366 0 0 0 
7.38569 6.06834 6.6455 0 0 0 
8.57358 6.49696 6.92602 0 0 0 
8.66778 6.93299 5.75138 0 0 0 
1.07063 7.39562 6.25439 0 0 0 
1.23435 8.30084 6.74597 1 0 0 
2.17929 7.8131 5.78802 0 -1 0 
2.65201 8.20082 6.67397 0 0 0 
3.0805 7.19919 6.13079 0 0 0 
3.69216 7.73785 7.02515 0 -1 0 
4.79156 8.23253 6.51438 0 0 0 
5.89061 8.54658 6.73926 0 -1 0 
7.00651 8.34393 6.63096 0 0 0 
7.6076 7.20586 6.96875 0 0 0 
9.4348 7.23256 6.42224 0 0 0 
9.65838 8.11458 5.82731 -1 0 0 
8.57654 8.0121 6.11693 0 0 0 
9.21217 8.56026 6.9161 -1 0 -1 
0.240258 8.9382 6.59878 0 0 0 
1.10396 9.42258 6.26917 0 -1 0 
2.41522 9.96741 6.29873 0 -1 -1 
2.27798 8.86965 6.02789 0 0 0 
2.0692 9.21717 7.07961 0 -1 0 
3.25621 9.15691 6.43594 0 -1 0 
4.60134 9.26132 6.31072 0 -1 0 
6.10668 9.7051 6.43488 0 -1 0 
8.967 9.15727 6.15015 -1 -1 0 
0.478766 0.304254 8.54128 0 0 -1 
0.953257 1.09422 8.06672 0 0 0 
1.45833 0.212665 7.46634 0 0 0 
2.35422 0.220104 8.38085 0 0 0 
2.21637 0.852124 7.1876 0 0 -1 
3.86839 0.486292 8.41358 0 1 0 
3.16025 1.42484 8.53277 0 0 0 
4.07081 0.985062 7.51416 0 0 0 
3.11453 0.727786 7.70674 0 0 0 
5.59049 1.2753 7.19221 0 0 0 
5.08614 0.223917 8.25363 0 1 -1 
6.36485 0.575558 8.43564 0 1 -1 
7.27986 0.50511 8.00253 0 1 0 
9.49782 0.874933 7.63034 -1 0 0 
1.92735 2.67552 8.11356 0 0 0 
2.49273 1.82963 7.66305 0 0 -1 
3.17791 2.69276 7.97305 0 0 -1 
4.10581 2.37281 8.49507 0 0 0 
5.02622 1.9947 7.94875 0 0 0 
4.31524 2.07355 7.14727 0 0 0 
6.30775 1.51089 7.88874 0 0 0 
6.03655 2.84892 8.21538 0 0 0 
7.20071 2.80048 8.07248 0 0 -1 
7.34111 1.62253 7.93822 0 0 0 
9.25568 1.55629 8.48558 -1 0 -1 
0.920268 3.36052 7.97812 0 0 -1 
2.31795 3.53243 7.60885 0 0 0 
3.37344 4.01051 7.57877 0 0 0 
5.14534 3.78844 8.10839 0 0 0 
7.00144 4.04046 8.36575 0 0 0 
6.56911 3.00782 7.20514 -1 0 -1 
6.56155 4.20938 7.15691 0 0 -1 
7.96321 4.22159 7.36131 0 0 0 
9.55665 4.05009 8.00971 0 0 -1 
0.56442 4.56192 8.05394 0 0 0 
1.52021 4.36846 8.29143 0 0 0 
3.94499 5.28892 7.59786 0 0 0 
4.99983 5.03314 8.30681 0 0 0 
7.12348 5.06547 7.61479 0 0 0 
6.77528 5.64194 8.32826 0 0 0 
8.18122 5.37926 7.48069 0 0 0 
9.80057 4.83695 7.35027 0 0 0 
9.9245 5.16637 8.45793 -1 0 0 
1.40976 6.86631 8.57077 1 0 -1 
0.403549 6.11208 8.00337 1 0 0 
1.9633 6.21938 7.5211 1 0 0 
3.00045 5.9851 7.72338 0 0 0 
5.07525 6.53279 7.22357 0 0 0 
5.59593 6.72102 8.22965 0 0 0 
4.68088 6.01842 8.04205 0 0 0 
4.37998 6.93329 8.55819 0 0 0 
5.90021 5.84105 7.5319 0 0 -1 
8.33253 6.84553 8.0218 0 0 0 
7.18056 6.51199 7.62911 0 0 0 
9.26481 6.95661 7.60244 0 0 0 
9.1801 6.1744 8.39793 0 0 0 
9.39535 5.87047 7.27799 -1 0 0 
0.592269 7.21479 7.7301 0 0 -1 
0.930661 8.21516 7.94527 0 0 0 
2.74561 7.14625 7.22641 0 0 0 
1.54793 7.29367 7.3512 0 0 0 
2.25972 7.98021 7.80311 0 -1 0 
4.05304 8.03591 8.1993 0 0 0 
4.46598 7.4096 7.41604 0 0 0 
5.42722 7.7789 7.38019 0 0 0 
5.70886 7.81498 8.36035 0 0 0 
6.58656 7.96728 7.69283 0 0 0 
7.42498 7.6327 8.43589 0 0 0 
7.72407 8.18477 7.56538 -1 -1 0 
9.02791 8.22927 8.18704 -1 0 -1 
9.97637 8.15158 7.52887 -1 0 0 
0.448243 9.08673 7.61349 1 0 0 
2.36293 8.82142 8.43498 0 -1 0 
4.23774 8.64106 7.29593 0 0 -1 
3.08173 9.68932 7.75543 0 -1 0 
3.02885 8.61755 7.58814 0 0 0 
4.30162 9.81892 7.24175 0 -1 0 
4.46024 9.01087 8.48318 0 -1 0 
5.35862 9.41822 7.15173 0 0 0 
7.87771 9.31484 7.80778 -1 0 0 
8.82503 9.90717 7.77067 0 -1 0 
0.825219 0.989642 9.44613 0 0 0 
0.0187177 0.312219 9.7756 0 1 0 
1.96502 1.06143 9.03004 0 0 -1 
2.94281 0.202022 9.30687 0 1 0 
3.45989 1.11456 9.57146 0 0 -1 
8.45863 0.0159109 9.1262 0 1 0 
8.30827 1.22552 9.03519 -1 0 0 
7.18548 1.26198 9.24114 0 0 0 
7.25473 0.0212107 9.49568 -1 1 -1 
9.53956 0.836071 9.15081 -1 1 -1 
1.3507 1.85551 9.66801 0 0 -1 
1.27435 2.79724 8.98007 0 0 -1 
2.38677 1.92273 9.93363 0 0 -1 
2.15723 2.13577 8.99856 0 0 0 
4.19217 1.85776 9.65467 0 0 0 
2.89664 2.82027 9.37171 0 0 0 
5.67462 2.44664 9.27399 0 0 -1 
6.12426 1.55274 9.14789 0 0 0 
8.23786 1.8027 9.98897 0 0 -1 
9.9563 2.80497 9.81759 0 0 -1 
2.16254 3.77049 9.67697 0 0 -1 
2.23069 3.47499 8.65432 0 0 0 
4.02183 2.86129 9.38301 0 0 -1 
4.15943 3.95363 8.62346 0 0 0 
5.05759 3.23465 9.16793 0 0 -1 
6.90584 2.92992 9.02062 0 0 0 
6.11494 3.27923 9.80072 0 0 0 
8.06222 3.56458 9.9277 0 0 0 
9.8423 3.82649 9.53195 -1 0 0 
9.76392 3.22526 8.72005 0 0 -1 
8.76312 3.55176 8.68409 -1 0 -1 
0.775901 4.81526 9.20188 1 0 -1 
1.96534 5.06919 9.25412 0 0 0 
3.04251 4.36179 8.81991 0 0 -1 
3.77416 5.34196 9.24723 0 0 -1 
4.78796 5.0109 9.85885 0 0 -1 
6.16597 4.38708 9.55013 0 0 -1 
6.1468 5.60175 9.90932 0 0 0 
7.83609 4.88995 9.22662 0 0 0 
8.53082 5.45236 8.73857 0 0 0 
0.0680009 6.35118 9.15245 1 0 0 
0.577213 6.16129 9.99044 1 0 0 
2.35091 6.07906 8.81511 0 0 -1 
3.01001 7.11732 8.67984 0 0 0 
5.12291 5.77824 9.13196 0 0 -1 
7.83099 6.16317 8.60086 0 0 -1 
7.15168 5.76841 9.36033 0 0 0 
8.0264 6.49144 9.70159 0 0 -1 
9.8327 7.05193 9.94042 -1 0 -1 
9.24455 5.7858 9.62791 -1 0 -1 
0.441116 7.3731 9.01681 1 0 -1 
5.19174 7.20438 9.16422 0 -1 -1 
6.47625 7.19933 8.90827 0 0 0 
8.26636 8.26819 9.76672 0 0 -1 
7.73031 8.46665 8.75874 0 0 0 
7.49209 7.49176 9.65242 0 0 0 
8.4798 7.4418 9.1429 0 0 0 
9.41058 7.20212 8.64307 0 0 0 
9.64381 8.17394 9.26797 0 0 0 
0.127094 8.93494 9.83828 1 -1 -1 
1.23654 8.99151 8.923 0 -1 -1 
0.87919 9.8639 9.9864 0 -1 -1 
1.71866 9.26923 9.83627 0 0 -1 
3.96417 9.90174 9.45802 0 -1 0 
3.4419 9.08575 8.92268 0 0 0 
5.65149 8.96774 9.51013 0 0 -1 
6.70559 8.78747 9.58753 0 0 -1 
6.34693 8.65984 8.57274 0 -1 0 
7.24191 9.40915 8.71815 0 -1 0 
8.91209 9.00023 9.5559 -1 -1 -1 
9.62395 9.74528 8.96895 -1 0 0 
ITEM: TIMESTEP
2100
ITEM: NUMBER OF ATOMS
512
ITEM: BOX BOUNDS pp pp pp
0.0000000000000000e+00 1.0000000000000000e+01
0.0000000000000000e+00 1.0000000000000000e+01
0.0000000000000000e+00 1.0000000000000000e+01
ITEM: ATOMS x y z ix iy iz 
0.205679 9.39614 0.940483 0 -1 0 
1.68718 1.47521 9.64123 0 0 -1 
2.65779 0.398192 0.599972 0 1 0 
3.75329 0.0274701 0.778749 0 0 1 
4.88468 0.375465 0.565835 0 0 0 
4.95597 1.179 1.47601 0 0 0 
6.15384 0.768122 0.494216 0 0 1 
7.38768 0.618733 0.4797 0 0 0 
8.56064 0.329139 1.39298 0 0 1 
9.14855 1.09625 0.773706 -1 0 0 
8.33547 0.990262 0.0147408 -1 0 0 
0.890371 1.08894 1.14818 0 1 0 
1.40019 1.99644 0.55836 1 0 1 
2.49313 1.96511 1.00833 0 0 1 
3.68204 1.03872 1.2522 0 0 0 
5.36358 1.79232 0.395404 -1 0 1 
4.62002 2.58192 9.84578 0 0 -1 
7.60091 2.42736 1.21845 0 0 0 
9.54035 2.72671 0.891343 0 0 0 
0.0360672 2.25643 9.72169 0 0 -1 
0.65673 3.17743 0.0615578 0 0 0 
1.09676 3.73272 1.38679 0 0 1 
2.43249 3.48705 1.07664 0 0 0 
3.91823 2.97918 0.585962 0 0 0 
3.42479 3.94982 0.434154 0 0 0 
4.94012 3.22172 0.676785 0 0 1 
4.29205 3.91561 1.19243 0 0 0 
6.57135 2.50415 0.741973 0 0 0 
6.28893 3.71882 0.720213 0 0 0 
9.11926 3.05068 9.97832 -1 0 -1 
9.6958 5.55368 0.537448 -1 0 0 
1.63647 5.77727 1.20251 0 0 0 
0.942025 4.7728 0.0676902 0 0 1 
3.51469 5.03791 0.0324729 0 0 0 
3.13777 4.74473 1.1913 0 0 0 
5.71974 4.57819 1.04204 0 0 0 
4.3549 5.28325 1.15874 0 0 0 
6.37188 5.75638 0.963137 0 0 1 
6.64389 4.53401 1.71965 0 0 0 
8.03721 4.71013 1.07331 0 0 0 
7.49016 5.79713 0.558791 0 0 1 
8.78415 5.62431 0.0151883 0 0 0 
0.11229 4.90909 1.36586 1 0 1 
9.01818 4.57823 0.530503 0 0 0 
4.41271 5.94506 0.370735 0 0 0 
5.95308 6.83493 0.250276 0 0 0 
4.40808 5.81938 2.10606 0 0 0 
5.56003 6.44309 1.17242 0 0 0 
7.08607 7.25229 0.641843 0 0 1 
9.59774 6.58166 0.768135 -1 0 0 
1.19802 7.37701 0.482378 1 0 1 
0.174769 7.57865 0.850487 0 0 1 
2.98184 7.41253 0.22933 -1 0 0 
5.921 7.90647 0.0989757 0 0 0 
5.01539 8.59089 0.754215 0 0 1 
6.05653 7.75605 1.25248 0 -1 0 
7.07239 7.99575 1.93052 0 0 1 
7.31536 8.22181 0.679503 0 -1 0 
8.0784 7.48998 0.431225 0 0 1 
8.97658 7.39414 0.936719 0 0 0 
2.75171 9.37108 0.426588 0 0 0 
3.91957 9.07034 9.88399 0 0 0 
4.4116 9.27026 1.29123 0 0 0 
5.69882 9.51619 0.182129 0 -1 1 
6.61635 9.82971 0.692183 0 -1 0 
6.29656 8.86401 0.584685 0 0 1 
8.90056 8.42732 0.669159 0 -1 1 
8.21966 9.89512 0.232238 0 -1 0 
0.0108208 8.56182 0.358012 1 -1 1 
9.2023 9.51909 0.483772 0 -1 0 
0.708898 0.0159508 1.71026 0 0 0 
0.373617 0.251744 2.74253 0 0 0 
1.91076 0.725178 1.30222 0 0 0 
3.62006 9.99477 2.20533 0 -1 1 
2.53058 1.21478 2.03323 0 0 0 
5.15325 1.51512 2.64181 0 0 0 
5.9658 0.564677 1.95055 0 0 0 
4.49852 0.170396 2.66857 0 0 0 
6.83298 1.2712 1.68821 0 1 0 
6.67827 0.787924 2.81862 0 0 0 
7.34671 9.89641 1.51383 0 0 1 
9.59384 0.350727 1.64479 0 0 0 
8.81584 1.29913 1.92392 0 0 0 
1.70102 2.90018 1.48304 0 0 0 
0.402263 2.59595 2.2567 1 0 0 
0.910902 1.66324 2.26941 1 0 0 
1.66956 1.66957 1.54713 0 0 0 
2.28278 2.39321 2.17538 0 0 0 
3.28499 2.765 1.51322 0 0 0 
3.45429 1.94852 2.28055 0 0 0 
4.17551 1.92314 1.33221 0 0 0 
6.24471 2.22389 1.88775 0 0 0 
7.30599 2.64912 2.18183 0 0 0 
7.80814 1.2763 1.53011 0 1 0 
0.0187525 1.5398 1.58026 1 0 0 
8.70034 2.15148 0.734974 0 0 0 
9.4396 2.23379 2.15136 -1 0 0 
0.962435 3.88518 2.64291 0 0 0 
1.88301 4.30152 2.01737 1 0 0 
1.9183 3.44688 3.0929 1 0 0 
3.34938 3.74498 1.86567 0 0 0 
3.11812 2.52186 3.20032 0 0 0 
5.2428 4.14421 1.80298 0 0 0 
4.26784 3.31037 2.42705 0 0 0 
5.4897 4.48721 2.73963 0 0 0 
6.85588 3.392 1.54019 0 0 0 
8.50782 3.54999 0.940843 0 0 0 
7.79147 4.11109 1.97015 0 0 0 
0.0703762 4.00997 1.89579 1 1 0 
8.87985 4.37618 1.68758 0 0 0 
9.33466 3.04932 2.69337 0 0 0 
1.24632 4.86658 1.51822 1 0 0 
2.99777 5.14024 2.30126 0 0 0 
1.92126 5.57433 2.35817 0 0 0 
5.28412 5.28125 1.65018 0 0 0 
4.24387 4.45498 2.08205 0 0 0 
6.26764 5.68281 2.00436 0 0 0 
7.93033 5.24342 2.16985 -1 0 0 
8.77404 4.33305 2.72118 -1 0 0 
9.43125 5.11979 2.26725 0 0 0 
9.27803 5.7187 1.41062 0 0 0 
0.353095 5.66061 2.55207 0 0 0 
2.21872 6.95343 1.32141 0 0 0 
3.51382 6.30398 2.23091 0 0 0 
3.28159 5.98229 1.31107 0 0 0 
4.65145 5.1919 3.1403 0 0 0 
4.96727 7.0169 2.24966 0 0 0 
5.84405 6.2463 2.8131 0 0 0 
6.4038 6.75935 1.84082 0 0 0 
7.1974 5.9946 2.57146 0 0 0 
7.77123 7.0812 1.79003 0 0 1 
8.52175 6.27257 1.97599 0 0 0 
8.75001 7.46663 2.06972 -1 0 1 
1.85136 7.90321 2.28684 0 0 0 
3.0967 7.21304 1.72106 0 0 0 
2.97797 8.36188 0.833151 1 0 0 
3.08139 8.17246 2.37711 0 -1 0 
3.79282 7.63895 1.10948 0 0 0 
4.37082 8.17969 2.34579 0 0 0 
5.9246 8.8618 2.77044 0 0 0 
7.5909 8.59857 2.81657 0 0 0 
9.76791 8.15017 2.11201 0 0 0 
0.600457 8.37676 1.28375 0 0 0 
2.39331 9.61316 1.46045 1 -1 0 
2.22326 9.01103 2.66622 1 -1 0 
3.5743 9.07708 1.92193 0 -1 0 
5.02799 9.28798 2.47622 0 0 0 
9.03681 9.42041 1.57414 0 0 0 
8.51735 8.26614 2.90755 0 0 0 
0.295106 9.1184 2.4253 1 0 0 
9.27141 0.531892 2.74904 0 0 0 
1.8679 0.989134 3.06912 0 0 0 
3.48798 0.0741895 3.58449 0 0 0 
3.80875 1.0254 3.01263 0 0 0 
3.73291 0.229638 4.67476 0 1 0 
7.78847 0.797222 2.9093 0 0 0 
8.07558 1.66714 3.99186 0 0 0 
0.906957 2.98757 3.1816 0 0 0 
1.09449 2.22078 4.11775 0 0 0 
1.50659 1.09379 4.05828 0 0 0 
1.47744 2.01043 3.26763 0 0 1 
3.1385 1.14043 4.12814 0 0 0 
2.0363 2.53061 4.0244 0 0 0 
4.02901 2.28652 4.58369 0 0 0 
4.32205 2.20971 3.0437 -1 0 0 
6.06606 1.95374 3.07789 0 0 0 
4.86454 1.4222 3.81826 0 0 0 
6.36269 3.29356 2.74242 0 0 0 
6.71966 1.52302 3.80882 0 0 0 
8.01397 2.39079 2.98736 0 0 0 
8.14724 2.4696 4.69762 -1 0 0 
0.489522 1.82163 3.23425 0 0 0 
9.05998 1.77411 3.4121 -1 0 0 
2.85737 3.71176 3.77915 0 0 0 
4.36656 4.07942 3.71052 0 0 0 
5.44502 2.45403 3.71745 -1 0 0 
7.29815 3.83049 3.68499 -1 0 0 
5.80556 3.71197 3.71455 0 0 0 
8.356 3.25373 2.18963 0 0 0 
2.6903 5.41508 3.40512 0 0 0 
2.68672 4.18924 2.70904 0 0 0 
5.48149 5.34277 3.82684 0 0 0 
6.41693 5.03974 2.87983 0 0 0 
7.61114 5.30537 4.10405 0 0 -1 
8.01352 5.58817 3.1487 0 0 0 
8.57844 5.24166 4.46083 -1 0 0 
0.438386 6.85801 3.18304 0 0 0 
0.0669425 6.3838 4.6854 0 0 0 
1.15131 6.12604 3.37454 0 0 0 
1.48589 6.8637 4.20029 0 0 0 
2.53356 6.43667 3.14244 0 0 0 
3.2982 6.79864 4.36774 0 0 0 
3.62529 6.14048 3.32014 0 0 0 
6.31029 5.7033 4.91326 0 0 0 
5.9374 6.87368 4.27337 0 -1 0 
6.6656 5.8186 3.57505 0 0 0 
7.8955 6.6537 3.18718 0 0 1 
8.88144 6.11244 2.99479 0 0 0 
1.31722 7.5564 3.40949 0 0 0 
0.143304 7.74216 4.28425 1 -1 0 
2.61148 7.49827 3.88719 0 0 0 
3.3579 7.23802 3.22886 0 0 0 
3.80937 8.76307 3.17942 0 -1 0 
5.14882 7.38006 3.29756 0 -1 0 
4.48734 7.99205 3.89502 0 0 0 
6.64903 7.88578 2.81284 0 0 0 
7.54536 7.75866 3.58363 0 0 0 
8.43548 8.91346 4.09625 -1 0 0 
9.08533 7.45121 4.49621 -1 0 0 
9.25852 7.10606 3.13469 -1 0 0 
1.42782 8.61239 3.39982 0 0 0 
0.503074 9.37774 3.45224 1 -1 0 
2.83786 8.97522 3.60992 0 0 0 
1.92024 9.69289 3.46004 0 0 0 
3.81673 9.25159 4.08569 0 0 1 
4.82555 9.01301 3.44609 0 0 0 
7.58698 9.86645 3.4179 -1 0 0 
5.21141 0.256314 3.61846 0 1 0 
9.58621 8.58038 4.14703 0 -1 0 
9.71147 0.00270049 4.18758 0 0 0 
1.40819 0.0490771 4.31626 0 0 0 
2.4472 0.476946 4.52485 0 1 0 
3.05507 0.850343 5.61562 0 0 0 
4.6945 1.59203 5.03897 0 0 0 
5.02648 0.413259 5.13544 0 0 0 
4.20848 0.0857384 6.24643 0 0 0 
6.96675 0.210728 4.28544 0 1 0 
6.43272 0.447669 5.39598 0 1 0 
6.99577 9.88339 6.00269 0 0 0 
5.81285 0.86309 4.52562 0 0 0 
0.485383 0.837384 4.30983 1 0 0 
9.73505 9.88018 5.91805 -1 0 0 
9.15736 1.05569 5.62677 0 0 0 
1.2152 1.50746 5.2211 0 0 0 
9.70056 2.47573 5.45844 -1 0 0 
0.059132 1.62038 5.0685 0 0 0 
0.504691 2.05045 6.03395 0 0 0 
2.24628 2.08568 5.41354 0 0 0 
5.59137 1.85048 4.57842 0 0 0 
5.65817 2.53393 5.83137 0 0 0 
6.41666 1.77327 6.03131 0 0 0 
7.70656 1.12274 5.05154 0 0 0 
7.12533 2.77345 5.03408 0 0 0 
9.16487 1.71504 4.75046 -1 0 0 
1.4041 3.66037 5.32047 0 0 0 
0.654104 2.75917 5.28831 0 0 0 
2.5878 3.12882 4.74229 0 0 0 
2.97046 4.77436 4.47496 0 0 0 
4.19526 3.91449 5.77528 0 0 0 
4.96941 3.19484 4.43537 0 0 0 
6.12653 2.82669 4.81272 0 0 0 
7.76318 3.81001 4.82734 0 0 0 
8.62401 2.84417 5.73053 0 0 0 
9.42012 2.73921 4.44811 0 0 0 
0.405265 4.75541 4.99143 0 0 0 
1.71073 4.99087 3.86337 0 0 0 
1.61467 4.88157 5.34121 0 0 0 
4.29118 5.45687 4.03134 0 0 -1 
8.71059 5.31816 5.50868 -1 0 0 
1.41132 6.09362 4.92485 0 0 0 
2.2149 6.01055 4.14679 0 0 0 
2.42723 5.71883 5.3131 0 0 0 
2.35565 7.40208 4.93438 0 0 0 
3.25711 5.81004 4.58687 0 0 0 
3.76196 7.4256 5.04882 0 -1 0 
4.82998 7.44892 5.3793 0 -1 0 
7.17897 7.34005 4.91157 0 0 0 
8.09532 6.26925 4.79767 -1 0 0 
9.7044 7.30991 5.37747 0 0 0 
0.784736 7.26032 4.94268 1 0 0 
0.307044 8.32139 5.19999 1 -1 0 
1.2715 8.7986 4.76603 0 0 0 
3.29375 8.38196 4.49842 0 0 0 
4.23391 8.10908 5.93676 0 0 0 
2.93925 8.10491 5.6358 0 0 0 
6.04619 8.03713 5.946 0 0 0 
5.21722 8.34215 4.84188 0 0 0 
6.25048 8.24696 4.72034 -1 0 0 
8.53642 8.09969 5.19199 0 0 0 
0.599152 9.61166 5.17143 0 -1 0 
1.91512 9.5638 5.20328 0 0 0 
2.96374 9.51449 4.53002 0 -1 0 
3.88789 9.11116 5.14574 0 0 0 
3.25464 9.77455 5.76604 0 -1 0 
5.1592 8.8289 5.67576 0 0 0 
6.13756 9.23763 5.03037 0 -1 0 
5.82341 8.72673 3.8297 0 0 0 
7.73623 8.65952 5.97638 0 0 0 
9.35702 9.06771 5.04108 -1 0 0 
0.172449 1.07372 5.92468 0 1 0 
1.15034 1.20079 6.4361 0 1 0 
3.197 0.424302 6.59391 0 0 0 
5.34282 0.311867 6.94238 0 0 0 
5.63542 1.10151 5.92536 0 0 0 
6.52965 0.571714 6.5985 0 0 0 
7.29595 1.27241 6.62789 -1 0 0 
7.08212 0.373092 7.59779 0 1 0 
8.5419 0.413963 7.25392 -1 0 0 
0.485678 1.59782 6.97871 0 0 0 
9.94513 2.73624 6.72881 -1 0 0 
2.58873 2.46434 6.59647 0 0 -1 
1.58853 2.11039 6.60561 0 0 -1 
4.44155 1.78512 6.30694 0 1 0 
3.24368 2.58882 5.56517 0 0 0 
3.33132 1.72485 6.58312 0 0 0 
5.24953 2.4204 6.91258 0 0 0 
6.13683 1.44364 7.19942 0 0 0 
7.7614 2.40093 5.76952 -1 0 0 
9.47043 1.59726 6.88354 0 0 0 
1.19937 3.21011 6.61127 0 0 0 
2.25312 3.66092 6.36068 0 0 0 
6.56014 3.29785 6.47429 0 0 0 
7.36395 4.33376 6.27335 0 0 0 
7.27826 2.85361 6.98303 -1 0 0 
9.29309 3.54583 6.56456 0 0 0 
9.20848 3.77702 5.1929 -1 0 -1 
0.692273 5.14564 5.92191 0 0 0 
0.696214 3.88418 6.07726 0 0 0 
1.07964 5.6081 7.31861 0 0 -1 
1.99962 4.80521 6.81993 0 0 0 
3.23363 5.47375 6.84966 0 0 0 
3.98966 4.82389 6.71636 0 0 0 
5.17768 4.45384 6.4151 0 0 0 
8.70588 4.34581 6.61534 0 0 0 
0.749171 6.21229 5.81291 0 0 0 
0.143321 6.35672 7.04531 0 0 0 
1.73581 5.81366 6.48199 0 0 0 
2.08441 6.67723 5.60809 0 -1 0 
4.2116 6.91722 6.11197 0 0 0 
3.22488 6.17443 5.93356 0 0 0 
3.62572 6.31675 7.53719 0 0 0 
4.50531 5.89075 6.64557 0 0 0 
6.77378 7.47142 7.30494 0 0 0 
7.66652 5.56083 5.47291 0 0 0 
7.84516 6.24982 6.24402 0 0 0 
8.83937 6.90937 6.68121 0 0 0 
8.72515 7.00162 5.46859 0 0 0 
0.6033 7.90116 6.0963 0 0 0 
1.43318 8.59169 6.34335 1 0 0 
1.83544 8.25431 5.44409 0 -1 0 
2.02848 7.63489 6.56943 0 0 0 
2.96158 7.09782 6.03287 0 0 0 
3.45555 7.68736 6.71266 0 -1 0 
5.14597 7.90374 6.54051 0 0 0 
5.91235 8.78535 6.81843 0 -1 0 
6.88974 8.17173 6.4763 0 0 0 
7.68712 7.61999 6.77037 0 0 0 
9.75676 7.4766 6.44836 0 0 0 
9.52405 8.22884 5.88543 -1 0 0 
8.69602 8.02531 6.46195 0 0 0 
8.44875 9.01503 7.47301 -1 0 -1 
0.331197 8.78737 6.6032 0 0 0 
1.15844 9.9982 6.1897 0 -1 0 
2.22742 9.91137 6.29856 0 -1 -1 
2.42472 8.94926 5.98293 0 0 0 
2.15844 9.41519 7.23031 0 -1 0 
3.34947 8.98385 6.32127 0 -1 0 
4.50511 9.05348 6.43707 0 -1 0 
5.73967 9.66926 5.94608 0 -1 0 
8.7083 9.26479 6.28474 -1 -1 0 
0.773693 0.0877775 9.2776 0 0 -1 
0.786681 0.845201 7.94378 0 0 0 
1.48705 0.318292 7.29756 0 0 0 
1.71777 0.556945 8.65023 0 0 0 
2.14415 1.06506 6.67126 0 0 -1 
3.62967 0.132677 8.30381 0 1 0 
2.48209 1.71797 8.87836 0 0 0 
4.01963 0.889839 7.05446 0 0 0 
3.38141 1.04445 7.97831 0 0 0 
4.91329 1.52776 7.32071 0 0 0 
5.74965 9.44831 8.73617 0 0 -1 
6.39555 0.602982 8.59273 0 1 -1 
8.01612 0.920469 8.17051 0 1 0 
9.77034 0.554032 7.64729 -1 0 0 
1.90693 2.62911 7.44952 0 0 0 
1.65933 1.32097 7.65381 0 0 -1 
2.81151 2.17445 7.51095 0 0 -1 
3.84148 1.89965 8.4609 0 0 0 
4.95789 1.73715 8.38599 0 0 0 
3.97796 2.16923 7.24555 0 0 0 
6.13042 2.03689 8.0422 0 0 0 
5.31744 2.83478 7.89575 0 0 0 
7.96836 2.87322 8.43025 0 0 -1 
7.26387 1.69948 8.18894 0 0 0 
8.59528 2.14699 8.43406 -1 0 -1 
1.26815 3.58809 7.75401 0 0 -1 
2.48829 3.5151 7.5054 0 0 0 
3.11515 4.70946 7.70668 0 0 0 
4.75591 4.26795 7.88042 0 0 0 
6.94662 3.80916 8.21078 0 0 0 
6.31916 2.75714 7.24844 -1 0 -1 
6.01016 4.31269 7.12724 0 0 -1 
8.65312 4.35918 7.78555 0 0 0 
9.67395 4.4473 8.10266 0 0 -1 
0.652396 4.56838 7.46622 0 0 0 
2.04195 4.48352 8.02305 0 0 0 
4.18606 5.1368 7.80545 0 0 0 
5.4409 5.02264 8.34647 0 0 0 
7.35443 4.66896 7.51374 0 0 0 
6.93635 6.40427 8.16622 0 0 0 
8.41976 5.42082 7.86461 0 0 0 
9.7417 5.19074 7.12819 0 0 0 
9.58785 5.57789 8.86633 -1 0 0 
1.36571 6.86735 8.37967 1 0 -1 
0.0673262 6.12323 8.07927 1 0 0 
2.46689 5.54756 7.55336 1 0 0 
3.30404 5.59474 8.68369 0 0 0 
5.40736 6.95145 6.85291 0 0 0 
5.79367 6.77619 7.94668 0 0 0 
4.71319 6.30743 7.90162 0 0 0 
4.97387 7.22638 8.42366 0 0 0 
5.85959 5.55588 7.52378 0 0 -1 
8.55461 7.09832 7.98677 0 0 0 
7.85841 6.6958 7.39865 0 0 0 
9.51813 7.42058 7.74769 0 0 0 
9.10049 6.5321 8.56584 0 0 0 
9.23176 6.09515 7.53526 -1 0 0 
0.562961 7.61076 8.25572 0 0 -1 
0.916793 8.27542 7.43694 0 0 0 
2.56962 6.59661 7.00793 0 0 0 
1.4908 6.61744 7.03935 0 0 0 
1.86839 7.53052 7.83829 0 -1 0 
3.71869 8.30377 8.31143 0 0 0 
4.53847 7.19533 7.33454 0 0 0 
5.66055 7.80037 7.70302 0 0 0 
5.89528 7.9566 8.79354 0 0 0 
6.73101 8.41879 7.6602 0 0 0 
7.1072 7.4761 8.74837 0 0 0 
7.90771 7.80733 7.86988 -1 -1 0 
8.91557 8.19915 8.11347 -1 0 -1 